72
Lattice="8.4799999750772592 0.0000000000000000 0.0000000000000000 0.0000000000000000 6.1540000114299858 0.0000000000000000 -0.1085042087298178 0.0000000000000000 13.5145644391666959" pbc="T T T" Properties=species:S:1:pos:R:3:forces:R:3 energy=-46050.4222999999983585 frame=0
C     5.1875005099999996   1.4067996199999999   4.0688830100000004  -1.2942985680394163  -1.3351585424600234  -0.9518378863802690
C     3.3059254800000000   4.3981576599999999   9.4381636100000001  -0.3499893864853758  -0.8048376235106627  -1.0334549910875273
C     4.4152149700000001   0.3280021700000000   3.4831218800000001   0.7994485908913830   1.8687961847294561  -0.3001089530755127
C     4.0429905300000000   3.3564571499999998   9.9681236599999998   1.3280725816304744  -1.0973109138606330   1.8269334800027810
C     4.1404479700000003   0.2969969900000000   2.1413183099999999  -0.2352343591555756   0.1110752642168645  -0.3142099122821813
C     4.4306126399999997   3.3056002599999998  11.3419317100000008  -1.1962212596925454   0.9904815697141303  -1.3160552445777487
C     4.6312721300000002   1.2722580800000001   1.2466822799999999   0.9848611377934502   0.7431465697573248   2.2890276004859178
C     4.0295282900000000   4.3141710499999997  12.2477183699999994  -0.4853651768939673  -0.0686011511138225  -1.4591679991838289
C     5.3281424199999998   2.3591761600000001   1.8238697800000001   1.6130896722686550   0.0724624341231900  -1.5642541352597821
C     3.2224727799999999   5.3148645999999999  11.7093269899999992   0.5904693106933627   0.0752304839886082   0.7469312338868953
C     5.6127068400000004   2.4604849400000002   3.2322255200000001  -0.1960260615262975  -0.1720350961777772  -0.8133376911821026
C     2.8925831999999998   5.3699704500000003  10.3561023999999993  -0.7052125109477579   1.9358814133087712  -0.6931180407945655
C     6.3385480000000003   3.5383939600000001   3.8371271199999999  -1.1826252651835993  -1.3785896202295234  -0.5222990765008148
C     2.2571950200000002   0.4005467500000000   9.8027603400000007   0.7052382219812470  -0.2650452740446499   1.0703040442838612
C     6.5243705299999997   3.5594694200000001   5.1708917699999999   1.3017341989244149   1.9527735623109981  -0.0192437315471913
C     1.9226681600000000   0.4739069700000000   8.4975798200000003  -0.8806748878896096   0.3939943345223486  -0.5270967553498490
C     6.1581451100000004   2.5119524599999998   6.0018290199999997   1.3029426174983947   0.1659544367576453   0.5158918869553735
C     2.0789052899999998   5.5525079499999999   7.6008389400000000   0.4847090313193297  -0.8106277482523695  -0.9182592766437269
C     5.5006669900000000   1.4118071500000000   5.4486124199999999  -1.2576346342842026  -0.3977471169703928   0.7488852724320539
C     2.8812152800000002   4.4479744700000001   8.0354432800000009  -1.0019281218234017   0.8324615578911686  -0.1354400679923138
C     5.0064040299999997   0.4373581300000000   6.3510267599999999   0.6639103067511415  -1.2573003908488465   0.4319119382704825
C     3.0902488099999998   3.4282220400000001   7.0800556600000002   1.8980707674599515  -1.5789094243484720   1.7287636119353496
C     5.4914967499999996   0.4394499800000000   7.6475351199999997  -0.9957729004061520  -0.7650729391166841  -0.5489408494020436
C     2.6066873600000000   3.4581743100000000   5.8188947300000002   0.1397446092190305   0.4307307733920011  -0.9266307891477225
C     6.4003099399999996   1.3963792700000000   8.1128913399999991  -0.4021735284958469  -0.1268633814410767   2.0136418629926904
C     1.9240263099999999   4.5993539400000003   5.3025488799999998  -0.2261352244038434  -1.0303233872085757  -0.4998620860163653
C     6.7107854900000001   2.5081148199999999   7.3264898699999996  -0.3562104281483572  -0.4728757852663848  -0.2044299699324890
C     1.5589651400000000   5.6013762600000003   6.2078174900000000   0.2958733174185464  -0.3624638657135346   1.9357065782810468
C     7.5632329100000000   3.5131956500000001   7.8488412099999998   0.1828095618716480  -0.2866394568513322   1.7798771465113419
C     0.5501601900000000   0.3483923800000000   5.8469208999999998  -0.2448091480268530   1.6209161108626855  -2.0916028587378226
C     7.9645916200000002   3.4731961299999998   9.1796552499999997  -0.5720807795420803  -0.1232874909034363  -0.7365799718042523
C     0.1370334800000000   0.4742649800000000   4.4995929300000004   0.7782472726764116  -1.2999189999600964   0.3680189916091528
C     7.5744372699999998   2.3869921900000000  10.0342289200000003   1.3855315992715345   1.9666832314285090   1.0216947643696908
C     0.6520012900000000   5.7281859500000003   3.4550812000000000  -0.5170437412556775   0.1374450143837806   1.7762416063760071
C     6.8249131900000002   1.3584604000000000   9.5181373100000002  -0.2788670114276288  -2.0227127156075846  -0.2494114230213714
C     1.4994554300000000   4.6535166800000001   3.9154207500000000   0.5453773001604779   0.2976139543857469  -0.6139537686821511
C     6.6213319400000001   0.2380592500000000  10.3794105999999999  -0.5683423952727900  -1.8266866540812869  -0.6029443041421915
C     2.0165155700000001   3.7236581599999998   2.9482897000000001  -0.7657414259873961   0.9652384770346991  -0.1866569609229315
C     7.0514897599999999   0.1626453800000000  11.7196500500000003  -0.6173527673093876   0.2848803079400197  -1.0538695516777374
C     1.5450222700000000   3.7779599799999999   1.6433371100000000  -1.1516280432093458   1.0925029505982031   0.7244803594443618
C     7.7534040500000003   1.2650674900000001  12.2150895899999998   0.5104581171378230   1.3290187476628670   1.3676829998235194
C     0.5265535099999999   4.7382181499999998   1.2757029200000001   0.2990943956940395  -0.9352748386067006  -0.3735715464014220
C     8.0159606199999995   2.3650152599999998  11.3993676500000003  -0.5412583925955514  -1.3081722417100430  -0.8965643065857680
C     0.1318872800000000   5.7411091699999997   2.1209738599999999   2.2331729513345673  -1.9729207281529233   1.8704056954258630
H     3.9725629400000000   5.7292817100000004   4.0644353000000004  -0.2921709285961405  -0.9660149502460649   1.0149173359420092
H     4.4141543199999997   2.5188054300000000   9.3853028900000002  -0.1759339172960385   0.0697740884615875  -0.3061680152275139
H     3.5122487100000002   5.6512403600000001   1.7662736800000001  -0.0319038958592072  -0.2357701770934849  -0.1188271408137768
H     4.9717397800000001   2.4452302499999998  11.6254203199999999   0.8131628561543781  -0.8522436270575512   0.5680595739044116
H     4.5824545299999997   1.0287415600000001   0.2131465300000000  -0.0695858836964485   0.4677783157668696  -1.0400370156606933
H     4.3288934699999997   4.3568432300000000  13.2799983000000008   0.0969377953426417  -0.2228637525027120   0.4278963890601815
H     5.9776935599999996   3.0258384700000001   1.1358121500000000  -1.3446459138174385  -0.6530911038589998   0.9704629590396496
H     2.9103523000000000  -0.0020962500000000  12.3246371700000008  -0.1583691676577413   0.1205739484290147   0.1872205467770088
H     6.7031554699999996   4.2836042799999996   3.2079895000000000   0.5999926774976623   1.4197169893984152  -0.9452610040138009
H     2.2123868099999999   1.2891794900000000  10.4351827099999994  -0.3344085001910844  -0.1174017211171506   0.0276743794282113
H     7.0913904800000003   4.4161614199999999   5.6038437700000001  -0.5015384453998436  -0.5768476051509278  -0.4234545509146340
H     1.4809638199999999   1.3750199700000001   8.0931117900000000  -0.0563200188575004   0.3643412853788963   0.1450256554976566
H     4.3922922399999997   5.7026911900000004   6.0672746499999999   0.3651964343527381   0.9824854382990732  -0.0445981530016295
H     3.7764892099999998   2.5645934100000001   7.3858696200000002  -1.2016360033453140   0.9471276250450971  -0.4296869054323506
H     5.0732790699999999   5.8313873899999997   8.3156660799999997   0.3544127126868112   0.2143282036050571  -0.0684967643178575
H     2.7966466200000002   2.6009916300000002   5.1863400999999998   0.0480394719899887  -0.0802811594071735  -0.1909800140937601
H     7.9023629299999998   4.3179573400000004   7.2459051199999998   0.2048634579571123   0.7145096206573549  -0.4759374551342465
H     0.2116851500000000   1.0856204100000000   6.5802693699999999  -0.2057875125007045  -0.2429414985542172  -0.1924481141059780
H     0.0469182100000000   4.2928624500000003   9.6198307799999991   0.2338361931544476   0.0230379601812196  -0.1384971098741476
H     7.8235732599999999   1.1504013600000000   4.2074629500000000   0.0346991994201236   0.3228945851740719   0.0847060282706183
H     6.1871359600000000   5.4563917699999998   9.8862487800000007   0.3055792325606174   1.2205850350266552   0.9553551557615546
H     2.8030317899999999   3.0381120199999998   3.2295716400000001   0.0367510427366742  -0.3164210611622292  -0.0201770934849064
H     6.7932094699999999   5.4613364300000002  12.3638400799999992   0.1823976711151554   0.2146290226968776  -0.4365923748068073
H     1.8625252200000000   3.0629991699999999   0.9220759300000000   0.3654468598189203  -0.5756803242305305  -0.6156249858589316
H     8.0790619800000005   1.3611841899999999  13.2962828500000008  -0.2823056050464383  -0.4602156723764358  -1.1541785777314475
H    -0.0453581900000000   4.6003166000000002   0.3494121800000000   0.5029129572501617   0.0741845591462785  -0.0889709745057619
H     0.1805087600000000   3.1492103199999999  11.7180598499999995   0.3925324051581681   0.7884699795916100   0.4477113683494298
H     7.8135269999999997   0.2028307700000000   1.9437633900000000  -1.9023799366726959   1.7874259059436917  -0.8026007635971257
