48
Lattice="9.4519999780864303 0.0000000000000000 0.0000000000000000 0.0000000000000000 6.0073999849963631 0.0000000000000000 -1.9958532183226361 0.0000000000000000 8.3056632839050977" pbc="T T T" Properties=species:S:1:pos:R:3:forces:R:3 energy=-29339.1516999999985273 frame=0
C     0.9320730000000000   3.4264398900000002   1.8427034499999999   2.2622418457971509  -2.0389312355324014   0.7220840911231937
C     7.8225373899999999   0.0234144100000000   2.0123037300000002  -3.1950484251889142   0.2156950021453286  -2.1801568002803942
C     6.7047269800000002   2.5976175700000002   6.5726765900000004  -0.1634476109924747   2.5355912694380556   0.7207574017951649
C    -0.2825906200000000   5.8758569700000001   5.9263879199999998  -0.4921210080535184   1.0786087081007856  -0.6594314447173698
H     0.2181488000000000   3.8340532100000000   1.2384304200000000  -2.0096669372153015   1.1540243115305140  -1.5063014657757348
H     8.6556602100000006   0.3307095600000000   2.5192838399999999   2.3800446590367286   0.8835339548135784   1.0030696917103101
H     7.6730939999999999   2.3437415100000001   7.0154865600000003  -0.3054892439434061  -0.4839294727839454  -0.1283849604029516
H    -1.2366338699999999   5.4879621900000002   5.5366742799999997   0.3802805834800233   0.2177976504640533  -0.2664881772440487
C     1.5382605899999999   4.1517572999999999   2.8194878800000001  -0.2674142886703200   1.3747175385860906   0.9790607286383477
C     7.1561178800000000   0.8581090099999999   1.0887085800000000  -0.6039573188616553  -1.1048493888795872   0.7155637730304012
C     6.1330460200000001   1.9653359100000001   5.5235206300000002  -0.9716816620270249  -1.7426989920863494  -0.8179348239699235
C     0.2517303900000000   5.1873288400000002   6.9766228400000001  -1.0186094403510193  -0.2419629366196285   0.0200581542439866
H     1.2289181100000000   5.2299731899999999   2.9654283000000001   0.3628608440706037  -1.1977536372884856   0.1396844454006664
H     7.4378897000000004   1.8665551400000000   0.8245130700000000   0.6262847803434418   0.2217499505319716   0.0717224705793786
H     6.5425156800000002   0.9659977199999999   5.2321298900000004  -0.3016906958557516   0.8028064518650372  -0.1139569568503038
H    -0.2786977300000000   4.3204478799999997   7.3324286799999996  -0.0262021142285682  -0.5573740683864126   0.0748237354388133
C     2.5638768100000000   3.5807055700000001   3.6255544000000000   1.7033765374683805   0.3034909824206465   1.6049701278928510
C     5.8722250000000003   0.4645413300000000   0.5248529500000000   0.8639575739151075  -0.2036884637266683   0.6637611827569057
C     4.8824441900000002   2.4145343800000001   4.8944298799999997   1.3627002015333649  -0.0669613013978986  -0.0938642983993750
C     1.3636159100000000   5.6284505300000003   7.6756908399999997   2.0545686861003682  -1.4362388995184014   2.0054811809633040
C     3.2394379600000001   4.2643845599999999   4.7406701199999999  -0.7053102128750159  -1.3941962175573037  -2.3578148994822006
C     3.1991485599999998   1.2234444499999999   7.8906504200000001  -0.3310562956447977  -0.0159763219893511  -0.1484920170326341
C     4.2652467600000001   1.7285262400000001   3.8177188499999999   0.0205483093864196  -0.1073430505956115   1.5354680621655765
C     4.0412163500000000   4.8178360199999997   0.3667273100000000   0.6304139723217639   1.6335145172722607  -0.1394741291467269
H     2.8761543299999999   5.2352454300000000   5.0350767400000001  -0.0729483726561308   0.3929278408532278   0.1946165826704343
H     3.6632573000000002   2.0573583400000000   7.4297337800000003   0.6273286483030923   1.0768655000302361  -0.0985143959161829
H     4.6578594000000004   0.7142541200000000   3.5350210400000002  -0.4314753649218405   0.9481252131444675   0.0386728396458377
H     3.6781348399999998   3.8916456500000001   0.7544161700000001  -0.6620591123399384  -0.7326821791273305  -0.1578456910159067
C     4.3868706599999996   3.7047638300000001   5.3271406800000003  -0.9512928124703037   0.0486814764962073  -0.3119108316676012
C     1.9733801600000000   0.8573353000000000   7.3199811300000004   0.3574769536580218  -1.0122382462524626  -0.5936369100191989
C     3.0656951499999998   2.2481201999999998   3.2831147500000002   0.3047431097515573   0.5842266717622507  -0.1652813219009051
C     5.2799167999999996   5.2298145500000004   0.9497271800000000  -1.1819567783128873  -0.0432228698203066  -0.4881121437119245
C     2.4067319299999999   1.5292975000000000   2.2653865099999999   1.1701451295280729  -1.0992392413723027  -0.4884268467618290
C     5.9732137999999999   4.4589909299999997   1.9172751800000001  -0.1382975922542735  -1.2975124472255326   1.0287550141657509
C     5.0380675600000000   4.4300496000000003   6.3607269999999998   1.1345713435927898  -1.0023035029123402   0.0345271926060827
C     1.4738608099999999   1.5180021200000000   6.1815261499999998  -2.2756578630716744   1.7914111161344755  -0.8643021017638591
H     2.8917490300000002   0.5322366800000000   2.0221468699999998  -0.9338607317648093   1.0361289385703760   0.0144171534965154
H     5.5490550199999999   3.5636151599999999   2.4282967400000000  -0.1542183784112885   0.4262246576627313  -0.9144643281007609
H     4.7036143600000004   5.4372715800000000   6.5348505499999998  -0.1715563567342133   0.3174453887364282   0.4208603076356009
H     1.8565768100000000   2.5455296600000001   6.0703494100000004   0.0876591975771567  -0.4310634741653479  -0.5864995271226721
C     1.4023138700000000   2.1004628699999999   1.5429241800000000  -0.2740528775171616   0.8704059011141310   1.1195972376888372
C     7.2103161699999996   4.7989124099999998   2.3913401200000002   1.0276391553123314  -0.2408049116712871   0.4289417996818413
C     6.1427191700000003   3.8883776499999998   6.9939518899999999  -0.0524427950073698   0.0140412067648403  -0.2866466559407091
C     0.2912230400000000   1.1245755799999999   5.4769363799999997   1.0449786762972655  -0.8505621254673752   0.6699883950679244
H     0.9133068000000000   1.5434200499999999   0.8027358700000000  -0.6618739928988182  -0.7879609011285291  -1.2680424606405214
H     7.7880383999999996   4.0929725000000001   3.0694790799999998  -0.8808702917441255   0.9061236688369521  -0.5799637824097862
H     6.6115090700000003   4.5067229199999996   7.7754800800000003   0.0290673518005745  -0.3971110260018766  -0.2207760165834109
H    -0.1700352600000000   1.6531039000000001   4.5837349500000002   0.8033618101883981  -0.3475416960972296   1.2298410070826697
