72
Lattice="7.9000000031159363 0.0000000000000000 0.0000000000000000 0.4438234744881625 6.0437257250395664 0.0000000000000000 -6.1525681108159214 -2.8584023188057062 14.5015703203358228" pbc="T T T" Properties=species:S:1:pos:R:3:forces:R:3 energy=-46049.3292000000001281 frame=0
C    -1.5289163200000000  -0.9045939300000000   5.8608603400000003   0.6573334243846732   1.2802243483075761   1.3134070081283888
C     3.4080023000000002   4.3304644400000001   8.6276593600000009   0.7186953769093527   1.2588636216849736   0.3354060882904549
C     6.3838517100000001   3.6069766799999998   4.0946611900000001   1.1428091587226430   1.3634098260576593   0.0931140504421681
C    -4.1082982200000000  -0.3840645400000000  10.4844883000000006  -1.2720842351049810  -1.5477425095531914  -0.4847959346125224
C    -1.6557915000000001   3.9392744500000001   5.4190410599999996   0.0759498787056284  -0.9340407089992319  -0.7019523519013617
C     3.6690839199999998  -0.5445774700000000   9.1233090400000005   0.2990805117359555  -0.5422662651083174   0.4642127096426249
C    -0.8647918300000000   0.0001681400000000   5.0595818399999999  -0.7933807869879955  -0.9161406874842392  -0.6059884905072807
C     2.7834807000000001   3.4899485000000001   9.4786219400000000   0.0325614812517201  -3.0346835671117622   0.2348852033207960
C    -0.8131994800000000  -0.2482969400000000   3.6594078799999998   0.7783346901902740  -0.1083504088877078  -0.4000199723308142
C     2.8644338399999998   3.5610045399999999  10.8913562200000005  -0.8063597166932073   1.1598967115793857   0.4110289226501041
C    -0.1440640500000000   0.6565742200000000   2.8150852999999998   0.0013823434311189  -1.0730396982470833  -0.8690946384061957
C     2.2245438700000002   2.7040697599999999  11.8029377400000008   0.9767210245908551   0.0855159258255196  -1.3186880544070152
C     0.0385703000000000   0.3260311100000000   1.4062422800000001   0.0326729642929281   1.0592225888501328   1.5246180060332482
C     2.2981119099999998   2.9021061800000001  13.1757044600000004   0.3648004844370086   1.0741966947540853   0.0623934791882554
C     0.7621558000000000   1.1666606399999999   0.5352218300000000  -0.4027828799895346   0.5779788906244407   1.3861435218685709
C     1.6796819800000000   2.0125793600000002  14.0484024000000005  -0.1031120429246732  -0.0822773640472540  -1.0416156731169135
C     7.7757405700000000   5.1606150399999997   0.8986997100000000  -0.5397003039661222  -1.5512854899679660   1.1968948887699553
C    -5.3538035300000004  -1.9354497100000001  13.6844994100000008  -0.0600290925486134  -0.7726988316495005  -0.9688843015834293
C     7.1659907699999996   4.2103165200000001   1.8018794499999999   0.2485783855363301  -0.0232651942951948  -0.1251068036331130
C    -4.6804270600000004  -1.0918639400000001  12.7779308599999997  -0.6066929728248773  -1.0988690024900620  -1.2045259235094696
C    -0.8403807300000000   4.5005208000000003   3.1784700600000000  -0.7900023571875502  -0.0150052162544742  -0.7688833142797433
C     3.1040957300000001  -1.3362016999999999  11.3819128700000007   1.7832658607251828   2.2947354499204602   1.4177372398197676
H    -1.5598913900000000  -0.7185992400000000   6.9319736399999998  -0.0022533304015899   0.1620350468125929   0.1929463939349935
H     3.4728897600000002   4.0336178800000004   7.6076556899999996  -0.0364171592557869   0.0688484912559860  -1.0179358112736094
H     6.1727064499999997   2.6529538100000001   3.7192598299999999  -0.7810240642932160  -1.3896762178699498  -0.4751378419927408
H    -3.4831602500000001   0.4168431300000000  10.8353159800000007   0.0010285956057581   0.2631025483542265   0.5900682185709355
H    -2.0696758499999999   3.2115035800000000   6.1356076499999999  -0.0334558138405990   0.3821903990475811  -0.2591497340656384
H     4.2827100800000002   0.1326395800000000   8.5156001200000002  -0.4416240240605908  -0.2652967279521717  -0.3407298148846726
H    -0.3394505800000000   0.8920780200000000   5.3510310399999996  -0.0500746031347715   0.3526072839152186   0.7685902084979697
H     2.4789535400000000   2.4582141000000002   9.1715364299999997  -0.2561168605552843   0.9276129506269994  -0.4351813532889348
H     0.2805337300000000   1.5543442100000000   3.2934667700000002  -0.0256780719439968  -0.2425784587613535  -0.5466679940416223
H     1.7726653100000000   1.8117841600000000  11.4023620599999997  -0.4145724172855484  -0.3738908774373545  -0.0704857698685611
H     1.1899778000000001   2.1066676499999999   0.9272043500000000  -0.0583738162125961  -0.4839747242028860  -0.0863057687742995
H     1.2182230199999999   1.1521414900000000  13.5261303399999999   0.0301326627621548   0.1340984662648615   0.8661430117616664
H     6.8435042199999998   3.2179432700000001   1.3600075800000000   0.1267116863434920   1.1512783731538963   0.6379575895474159
H    -4.0330614999999996  -0.3192942800000000  13.1488173499999998  -0.0159253112989091   0.5463440350196618   0.1114773847806314
C     2.1412843499999998   1.9758810800000000   5.7282316099999999   0.9475904236478979   1.4036013136075540   0.0085653736965020
C    -0.0379226800000000   1.0697228599999999   8.6744928300000002  -0.4672589528903932   0.5135372705084572   0.3121936530359793
C     2.2664598100000002   2.9803489900000000   4.7863773399999996   0.1918315635229135  -1.9149680586688760  -0.0133086994207407
C    -0.0813553400000000   0.1157180900000000   9.6573007799999999   0.2464577394941632   0.0219233354574075   0.3203939300569386
C     2.9731519700000000   2.6686348000000000   3.5707348300000001  -0.8307132076139214   1.7236522584777503  -0.1359311487319524
C    -0.7174563000000000   0.3689080800000000  10.9308832999999996   0.0886562714558574   0.1347175879512749  -0.5114706176366172
C     2.9922857299999999   3.6438649200000000   2.5575794699999999  -1.0848924846854799   0.9518430285869668  -0.3634290579107091
C    -0.7976890599999999  -0.5335771100000000  12.0012536200000000   0.6788998392751875   1.0657840445965074  -0.7066728976499292
C     3.5608002299999999   3.3832448899999998   1.3015574400000001   0.1158657439765219   0.0235131515021620  -1.8438513400384964
C    -1.3497439499999999  -0.2202248700000000  13.2486468800000008  -0.6378753142402512   0.5822829176304876  -0.2243328809562694
C     3.5186564699999998   4.2525407700000004   0.1525488200000000   0.1190775662799590  -0.8785562987301216   0.3123360921615080
C    -1.3093593400000001  -1.1060432600000001  14.3027027699999998  -1.0057796346400436  -0.3300864754615953   2.4543855412666202
C     4.1417182199999996   2.0793422499999998   1.0747798399999999   1.9686681232138543  -0.5765750681959452  -1.6908449797458762
C    -2.0625684199999998   1.0544574400000000  13.3957476700000004   0.5027797740966891  -0.0122284246376698   0.6374793643245218
C     4.1824980700000003   1.1415346300000000   2.1078315000000001   0.3934765143078816  -0.1778864131791878   0.0440294763629213
C    -2.0232536699999999   1.9316474400000001  12.2885687000000008  -0.0881420507860788   1.3414423190447178  -0.8529069717215656
C     3.6004456100000000   1.4076542200000000   3.3572983600000001   0.5173831268977314  -2.0167169025979663   0.1900837274663360
C    -1.3227317999999999   1.6720225799999999  11.0593464400000006  -1.6426110809206440   0.6356435965334122   1.0106133089359621
C     3.5230949300000001   0.3887930800000000   4.4109800500000000  -0.7983121632111724   0.9442531315010347  -0.6959308278582543
C    -1.3451755000000001   2.6223771100000000   9.9425937500000003   1.4768726168443058  -1.8592882445452499   0.5817584125473134
C     2.7628404600000001   0.7179337200000000   5.4980409699999999   0.1014130578317248   0.1119710366236188   0.6699112619674576
C    -0.6387045200000000   2.3680239300000001   8.7966012800000009  -0.2245493678582462  -1.0550111215646458   0.6214356794274296
H     1.8337288000000000   2.2845166400000001   6.7460096099999998  -0.4081888818909170  -0.5741016667743102  -0.5170643100824686
H     0.4104930000000000   0.8943718100000000   7.7237105399999999   0.6393922652160980  -0.5761174117998423  -0.5754849203760146
H     1.7478635499999999   3.9035682199999999   4.9246729299999998  -0.0481643761906780   0.8621989392244647  -0.0410961559742363
H     0.4694349200000000  -0.8055906000000000   9.4977953599999996  -0.1473129090368318  -0.2853945286097982   0.0271364017634889
H     2.3753500299999999   4.5961646700000003   2.6511754900000000   0.9104071270162079  -1.0577364911144724   0.1984783799004716
H    -0.2652064000000000  -1.4430226600000000  11.9416300000000000   0.5121205925632172  -1.2323092662976070  -0.3028646616448561
H     2.9592171100000000   5.1605143000000000   0.2585600800000000  -0.1013153559044668   0.7204591538066932  -0.0404006725183608
H    -0.7621195800000000  -2.0795784899999998  14.2241807999999992  -0.5633030327089598   0.7432751249247694   0.0545500713121225
H     4.7580864099999998   0.2343048500000000   1.8547098600000000  -0.5116454526643418   0.0416566565042950   0.5943671033702845
H    -2.5558000600000002   2.9109534500000001  12.4169534200000005   0.4980124342671718  -0.7369862061333773  -0.2508615253101470
H     3.8884448200000001  -0.6453610000000000   4.3124463500000001   0.1661369850954167   0.6129458961693851  -0.2196020507943064
H    -1.7899941600000000   3.5449346899999998  10.0793901899999998  -1.1110251791236281   1.9047813472005621   0.4364705045080698
H     2.6503976499999999   0.0438897200000000   6.3157691900000001   0.0177380420040126  -0.9266719268013046   0.5077651434901925
H    -0.5272339400000000   3.0589501000000001   7.9640251900000001  -0.2020861521196382   0.1840714593952847   0.1182249884094661
