144
Lattice="8.2559995793519132 0.0000000000000000 0.0000000000000000 0.0000000000000000 11.9659996180585768 0.0000000000000000 -9.3827199389262486 0.0000000000000000 14.5988316628589896" pbc="T T T" Properties=species:S:1:pos:R:3:forces:R:3 energy=-83936.2844000000040978 frame=0
C    -0.7387712900000000  -0.2398633600000000   2.5915827800000000   0.3763431958115286   1.0010745155115692  -0.0501013426096000
C     4.3961353499999998   6.2656630699999996   4.9097544099999997  -1.3781473904535138   0.0299262545853057  -1.8899923607377298
C     0.0948591700000000   3.3482444800000000   4.9227691800000004   0.8585891101226190  -0.6707237306257078  -0.1472110933442156
C     3.5277220900000001   2.9604047400000000   2.4311245399999999   0.0982439158438793  -1.0938759197865120  -0.1666383502484509
C     0.2465131600000000   0.5177951200000001   1.9259047700000000  -1.1983604176788243  -1.1762026490180648   0.1699818130433512
C     3.6052602399999998   5.3361566500000004   5.5593290299999998   0.4431353186090701  -0.2141250864404946   0.2925720207185679
C    -0.6558926100000000   4.0686770699999997   5.7884014700000002  -0.5947116312190363  -1.1423926399801223   2.3762034306334829
C     4.1431082200000002   2.0533128800000000   1.5791229800000000   0.3036179949260818  -0.5706718149068869   1.7360912564796946
C     0.4499736300000000   0.3449356300000000   0.5192913700000000   0.2876396160540516  -0.2853749882243466   0.1565529402520833
C     3.2643656900000000   5.4775807600000004   6.9437401799999998   1.2870583410089338   0.2664598951072109  -1.1975530912272718
C    -0.9893102600000000   3.5435193500000000   7.1607775800000004   1.4185959883382979   1.2468154313920612  -2.3068247778669551
C     4.4729301299999999   2.4386918999999998   0.2949140600000000  -0.5520261734207151   0.4358740085311266  -2.9885219775857381
C    -3.8910851300000000   1.7918203100000001   6.6363055099999997   0.7981321859767498  -0.2520899984902481  -1.1042220396624571
C     7.1580874200000002   4.3662122400000003   0.9560024900000000   1.2426965238271346   0.0915127672764775  -0.7899149396736879
C     3.1466213999999999   4.4775392299999996   0.5492642900000000   1.1535717973411088  -0.6288044616253569  -0.3566372313042734
C     0.4048498000000000   1.6071792499999999   6.6489915300000000  -0.3875861165355678   0.3424046316061415   0.1104859673292983
C    -3.4236075900000000   1.5057257900000001   5.3511202899999999  -1.1155606054310752  -0.7992274760033782   0.3012453807557234
C     6.9234373400000004   4.7697239600000003   2.2439944000000001  -0.3124487064881896   0.0966071514519740   0.8014437670901239
C     3.0620689699999999   4.1580996900000002   1.8926886700000001  -0.8846549558736959   0.5386872892466584   0.6449612750698003
C     0.6228503600000000   2.1008296600000000   5.4105603899999997   0.6970723977451628  -0.3702805341148390  -2.9296745641362758
H    -0.9291541300000000  -0.0295487500000000   3.6682902300000002   0.1768682562530262  -0.2686340200990348  -0.7086475050218790
H     4.3584427799999998   6.1313386999999997   3.7724705300000001   0.8388276097830276   0.1802184039166337   1.4474591945329702
H     0.3653176900000000   3.7153137100000002   3.8996672299999999  -0.3181853522802395  -0.3260117908742697   0.9041850569118869
H     3.2687203899999999   2.6966404900000001   3.4734798900000001   0.2678009826139934   0.0840581102266973  -0.4970451851873182
H     0.9171157900000000   1.1419397200000001   2.4999664899999998  -0.0179063978512981   0.5194965738505214  -0.0075740590893029
H     3.3439166100000000   4.4622480600000003   4.9725427599999996  -0.4170807857127284  -0.2407169799367549   0.1682946550258077
H    -1.0282370800000000   5.0227664499999998   5.5421678200000004  -0.5805499939733337   1.2126197568517847  -0.2955493583965859
H     4.3814939900000001   1.0215127399999999   1.9222254900000000   0.0300967187373373   0.7213384711520147  -0.3248203415823928
H    -3.7290021900000001   2.8228848900000001   6.9569690199999998   0.1464490183116037  -0.3847198505222219   0.6381941310555140
H     7.1011555499999996   3.3231411999999998   0.5955471700000000  -0.5643314740485169   0.4958393377166874   0.2650910396842603
H     2.6658116700000001   5.3213251000000001   0.0949451400000000  -0.3207682827045374   0.6402612981480239   0.0876797664039479
H     0.8829503300000000   0.6712710700000000   6.8467228000000002   0.0297259142123600  -0.6166020051315109   0.7106529656340156
H    -2.7671265300000001   2.2150227100000000   4.8988889200000001   0.1770518330321371   0.6104262148874700  -0.7067808839905827
H     6.3935180799999998   4.2092886800000002   3.0112656400000000   0.0074184044925609  -0.5890397772313782  -0.3245200367112421
H     2.5078166500000001   4.7191658900000002   2.6533450599999999  -0.1454601719636195   0.6066929728248773  -0.6374022312240549
H     1.1835776499999999   1.4578795099999999   4.6449975600000002  -0.4652833170771039   0.8348012619386612   1.2004532958048233
C    -5.5335754300000000  -0.0912338200000000   9.4809794499999995   0.9180021663088377   0.1647233924741954   0.9762325149545655
C    -0.5459975500000001   5.7899738799999998  12.4888465100000001  -0.3124805881697159  -0.1217031770198485   1.2379399826316826
C    -4.5556144200000004   3.1380325099999999  12.0624520499999992  -0.2948659591264501  -1.6495067801023748   1.2099663781957273
C    -1.4905198399999999   2.6468001499999998   9.7597628899999993   1.3164100568398960  -1.1203222888332249  -0.5860830083801514
C    -4.8710524199999998   0.9509269100000000   8.8151602100000002  -0.3859236411101736  -1.4752733905612945  -1.3854698927911611
C    -1.1696037100000001   4.9246139299999996  13.3938957199999997  -0.1857745582535914  -0.2418960879325573  -2.1165271346019909
C    -5.2551655700000000   3.9894432599999998  12.8937378500000008   0.7189319184174509  -0.5077003516858005   0.0567843601223105
C    -0.6726311900000000   1.8848264299999999   8.9090020200000009   0.4945830966204183  -0.8806440346494229   0.6532093746130488
C    -4.5215481799999999   0.7898918300000000   7.3962236299999997  -1.6495479177559573  -0.5119349589014272   1.8700663097838091
C    -1.5495447600000001   5.2890905600000000  14.6728566199999992  -0.0752289413265988  -0.0350847106562566   1.1005093664266559
C    -5.4294439900000002   3.6594541800000000  14.2797809800000000  -0.9466699686489942   0.3621244800714808   1.3106147898914913
C    -0.4164581900000000   2.3289098500000001   7.5653435299999998   0.2288328260375019  -1.3698530110499851   1.2055697914691201
C    -8.0967934800000005   1.1865882299999999  14.3627030799999993   0.3335271259630839   0.9593815036059210  -1.7568194916784696
C     2.5759487999999999   4.5714340399999998   7.7528255799999997  -1.4811149373699792  -0.8346932755980077  -0.1844308996434600
C    -1.7005489100000000   4.3232910899999997   8.0681715900000004  -1.0618759675061902   0.5136097756228960   0.0900338686301943
C    -4.3083049700000000   1.5730985399999999  13.9481797499999995   1.0944107092830817  -2.2328901299661887   0.6230091946769521
C    -7.8993863900000001   0.9806372300000000  12.9471814599999995   0.0778129001922363   0.4582996861608408   0.9896382478156933
C     2.2061098900000000   4.9257686500000002   9.0562102699999993  -0.6678698059084366  -2.5039872670734633   0.5455264241547138
C    -2.0339065399999998   3.8629017200000000   9.3246954399999993  -1.1981855826510994   0.0223024703572353   1.4417410606850325
C    -4.1735186000000004   1.8411350000000000  12.6190849400000005   0.4899119160561495   2.2384437131997976  -0.8556066302379032
H    -5.6661916600000000   0.0060922200000000  10.6258744400000005  -0.0991761979181879  -0.1240032860757682  -1.8150241292907086
H    -0.2694270200000000   5.4348259299999997  11.5149442299999993   0.1011358928907141  -0.2305904322868051  -0.5529209173861299
H    -4.3351431800000002   3.3243434800000000  11.0149837200000000  -0.1817271273617641   0.2594875770456829   0.0061045192592096
H    -1.5653751199999999   2.2904664499999998  10.7850140700000008  -0.4431214346509860   0.0786171413197700   0.0968004984238108
H    -4.5838788199999998   1.8487094399999999   9.3276478100000002   0.0751970596450725   0.4804728814416937   0.2362139495315038
H    -1.4734765999999999   3.9414520000000000  13.0306335200000003   0.1353253967829532  -0.1434932779017164   0.0697298654839865
H    -5.5901063700000000   4.9362944400000002  12.4906241300000005  -0.2544255887723825   0.2872030427054095   0.2625122230253206
H    -0.1943412600000000   0.8977158900000000   9.3229670900000006  -0.7730176484647633   1.8685647854280558  -0.9621222997758409
H    -7.7449805600000001   2.1100924499999998  14.8925997599999995   0.1065578356328596  -0.7871432902635812  -0.7159905761863173
H     2.2222061100000001   3.6340879600000000   7.2389771500000002   0.1318677769993619   0.7988520949144399   0.8278489984832548
H    -2.0614491500000001   5.2718131300000000   7.7032076600000003  -0.2855878755816350   0.4071583836686806   0.0048294628286333
H    -3.8614663999999999   0.5807183900000000  14.2739818300000003  -0.6369548592413475   1.1003551002257224  -0.0263556605205641
H    -7.2503342699999997   1.7298156899999999  12.3700950600000006  -0.9368329272361297  -1.1127169651271995   0.7607226322503572
H     1.5677368500000000   4.2171246099999999   9.6630616800000002   0.5708723609681007   0.5522472883087201  -0.7548296633746945
H    -2.8127762600000001   4.2940449000000003  10.0552161200000008   1.3806465029086377   0.1822907132158414  -1.3628184722874139
H    -3.5494761100000001   1.2285564700000000  11.9875266200000006  -0.0468711112061848  -0.6118454639360589  -0.1666866869914100
C    -0.8617040100000000   6.0085885599999997   2.7008540499999998   0.3407380424153891   2.6391244590912772   0.5780148860713252
C     4.4522123599999999  12.2533155499999999   4.7020812699999999   0.0340068012882668  -0.3633894629191361   0.5497893135071783
C    -0.0711177000000000   9.2981941700000004   4.8437256199999998  -0.1400346296767856  -0.4569375156065973   2.0390289374596593
C     3.3655812300000001   8.9170955200000002   2.0627958500000001  -0.5059103495343013   0.0622793221995645   0.1685445662713201
C    -0.2591681300000000   6.9634243900000001   1.8547060200000001  -0.8406839464009284  -2.0422016789921931   0.9719284879485187
C     3.8232561000000000  11.2710417500000002   5.4425317299999998  -1.3349939918456941  -0.3207497707604254   0.8238226506388884
C    -0.6667396200000000  10.0905869900000003   5.8281867800000002   0.6134755434592570  -0.6952623409875422  -0.3956454970930077
C     4.0134406699999996   7.9406491900000002   1.3821294300000000   0.1270310173794245  -1.1883793944784218  -0.0697663751515408
C    -0.0551123500000000   6.6039430299999999   0.5222808799999999   0.8515185759131633   1.0162851629236200  -1.0053065516238471
C     3.3330122499999999  11.4869691100000004   6.7917024100000001   2.7025227254682798   1.6596574961238044  -1.3653330113626312
C    -0.7620363200000000   9.7410102799999994   7.1737846300000001   0.8265274513619237  -1.4164773991788102   0.0601108536351082
C     4.3413729900000000   8.0823177299999998   0.0099724200000000   0.1998729463569111   2.5398901542374044   0.0183651341108076
C    -3.7619680500000001   7.6678537899999997   6.8225210699999996   0.6038699013477928  -0.5080747043333993  -0.7840631084516074
C     7.1012204299999997  10.5058440799999993   0.6060453900000000  -0.2746905111476871  -0.7483967627957643  -2.0356042277989341
C     3.2613870199999999  10.3331533600000007   0.0828076800000000   0.9992233211003663   0.7093519873394757  -1.4100290719797866
C     0.4058287600000000   7.5626490899999999   6.6030620799999999  -0.7245934879917132   3.5419416890215532  -3.2760844605393222
C    -3.4171012400000000   7.4876277699999996   5.4956636400000001  -1.4346036777885054  -2.3846983560982249   0.9570058041115439
C     6.7383569999999997  10.7602168999999996   1.8734390599999999   1.6780871649286693   0.9639580675669503   1.5571784588436288
C     2.9732225900000002  10.0920018599999999   1.3818607999999999  -0.8495696795747025   0.2646246415367711   1.5539131575905347
C     0.5145606400000000   8.0704406599999992   5.2630543000000003  -0.4067300378507551  -1.4676012181681979   0.4478733478604101
H    -0.9765801500000000   6.3778746599999998   3.7651550899999999  -0.1439972141580994  -0.8758669246271797  -1.0281173805352255
H     4.5599517900000004  12.0187664000000005   3.6361157000000000   0.6795426151124107   0.3247550355573309   0.2822145879878875
H    -0.1247415300000000   9.6300433499999993   3.8235015200000002   0.3461116484145754  -0.0377315072877410  -0.4624216790497860
H     3.0955834200000001   8.7190817200000001   3.1130145400000000   0.0257077424766431   0.3797406517767558  -0.3330345025614360
H     0.1162595300000000   7.8818451100000004   2.2496783800000002   0.1419691278364926   0.6912102821096869   0.1524273478184497
H     3.6029636400000000  10.2597231900000008   5.0570994200000001   0.0346606842919572   0.5190594862812096  -0.3176469632389813
H    -1.0475861799999999  11.0395261599999994   5.6236800899999997  -0.7230611103957730   1.6252149956620343  -0.8317725021936653
H     4.2128826500000001   7.0107127699999996   1.9249130600000000   0.2968518793531351  -0.0049943219753643  -0.3846540302764903
H    -3.3809366299999999   8.5504153800000005   7.2999114699999996  -0.0967819864796988   0.3896841368682644   0.6608506937659588
H     6.5749845100000002   9.7577207099999992   0.0504501900000000  -0.3004380543041710  -0.7521248626516591  -0.2118470888733754
H     3.1080525300000001  11.2988248799999997  -0.4809718700000000  -0.3373626979389624  -0.9115898345566985   0.9694910819737682
H     0.7735839200000000   6.6599574800000001   6.9499506799999997   0.8425299986054334  -1.8857706090388475   0.2941645621328722
H    -2.8538474400000000   8.1112646900000005   4.8766455600000000   0.9148911312566771   1.4522928688288890  -0.5448836483174905
H     6.1281523099999999  10.0650394799999994   2.4015322900000000  -0.9580753831046834  -0.2316697814726704   0.3362051872112908
H     2.3685651200000000  10.7603719299999998   1.9758055000000001  -0.1330263161683731   0.6046000946988785  -0.0072780736717783
H     0.9013323900000000   7.3843537299999999   4.4985441100000001   0.2598228489223786   0.2703875125829798   0.1435349297759684
C    -5.5211305399999997   6.0522342399999998   9.6900297399999999  -0.9580136766243098  -0.9791172929120234  -0.9055837371336846
C    -0.2780268400000000  11.8097020300000004  12.2918588399999997   1.1041706175954795   1.9493077149966902   0.9693162469460435
C    -4.0178618500000001   8.8670479800000006  12.0061195699999992  -0.6195947694296222  -2.3270542190160448   1.3222464614418830
C    -0.9655597200000000   8.8291430799999997   9.7721194199999992   0.6091869430733036  -0.9587644388021865   0.8062363037324604
C    -4.7994308700000001   6.8545310500000003   8.8804363599999991   0.9459552019180019   1.6976892568606290   1.2980318101020090
C    -1.0848803199999999  11.0129409999999996  13.0660966999999992  -1.1268426069260176  -1.3252135147065054  -0.9162126783780081
C    -4.8562015900000004   9.7065430500000005  12.7131696499999993   0.7035001561173952   1.8844850573644008  -1.4128315746300799
C    -0.3152092400000000   7.9936149199999997   8.8529570399999997  -1.4531927550010015   0.7037572664522846   0.9190151810283014
C    -4.4892696299999999   6.6584639399999999   7.5375517800000003   0.0276609582687301   1.1806455156049518   0.1758516419888739
C    -1.3295267099999999  11.2230263800000003  14.4559919800000003   0.1385804136226517   0.8377168931363058  -0.1573792928684175
C    -5.3358608600000004   9.3830950499999997  13.9739414100000001  -0.9153487876527800  -1.2028084264724090   1.1042168974557593
C    -0.2268080400000000   8.4069017400000003   7.5083800199999997  -0.4151555435250772   1.1573667458840748   1.4580521403304094
C    -8.7390276100000008   7.4959715800000000  14.2300366399999998  -0.7400252502917688  -0.7512095498594532  -1.8873029866347875
C     2.6990602400000001  10.4795203000000008   7.5024194000000000  -0.6975403385546615  -0.7938384433840986   0.0186485725439895
C    -1.3129521099999999  10.5996458600000008   8.1664527299999996   0.0501185690020375  -0.6134909700793504   0.4472933069448998
C    -4.1663086500000004   7.2667858200000000  13.9206136500000000   0.6152598891833888  -1.0286316012050041  -1.2776738137854744
C    -8.4764334300000002   7.1057864999999998  12.8868145399999996   1.7982451088358333  -0.3437878852078459   1.3294712618522722
C     2.4051456299999998  10.6204799399999992   8.8312004500000008   0.2894527581356909   2.6133517191219742   0.3652380862269901
C    -1.3964116700000000  10.1332305399999996   9.4633508600000003  -0.1240207695785406  -0.7482990608685063  -0.1636209033581901
C    -3.7757043600000002   7.5668930899999998  12.6124560300000006   0.3223927058003680   1.4778804893570718  -0.1115678876185124
H    -5.7482083499999996   6.3272582899999996  10.7090641099999999  -0.0134893451420339   0.0064674562079393   0.2603941480865026
H    -0.1289800400000000  11.6858385499999997  11.2063244399999995  -0.1318178975943934  -0.1961515313697234   0.5433307018947592
H    -3.5324192200000000   8.9785329899999997  11.0454635600000000  -0.2397322473541290   0.7239404277410944  -0.2247493996987901
H    -1.1425496200000000   8.5383661600000007  10.8401180499999992   0.3844185172097316  -0.1896651518411362  -0.9176370696332947
H    -4.4563951700000004   7.7020089900000004   9.4356370500000004   0.6621979519207788   1.0689259328888547  -0.2997901362602500
H    -1.6496432900000000  10.2006180600000000  12.5102043399999996   0.5188229447731114   0.6671601813841421   0.9630170437412556
H    -5.0404853500000000  10.7783803200000001  12.3920208400000007   0.1158919692306806  -1.1853557769401237   0.0832641535125591
H    -0.0343078200000000   6.9744733200000004   9.0963143500000001   0.2096302835659599  -0.0700301703551373   0.2490679236139593
H    -8.5655904500000002   8.5441690599999998  14.4424866299999994   0.3380409550024004   0.0001504357711644   0.6962136492266326
H     2.3880229399999999   9.6137143300000005   6.9139695400000001   0.0594511085157823  -0.1787924699993377   0.2875285443893794
H    -1.6744955800000001  11.5904821400000007   7.9407855899999999  -0.1109019718511492   0.2478559054952912  -0.4151971953993293
H    -3.7221230599999999   6.4234487700000003  14.4458130300000001  -0.2923498773892235  -0.2791930273322684  -0.2379468731886577
H    -7.6234336599999999   7.5895569099999998  12.3208477300000006  -1.4502102751162858   0.2162961261082998   0.3151730475966765
H     1.8114341000000000   9.9772573799999993   9.4140387800000003  -0.5544327261552789  -1.3635126701916152   0.4448584720734982
H    -1.8540125400000000  10.6109923199999994  10.3256197699999994  -0.1542929404084064   0.7565934402720350  -0.4205157797868493
H    -3.0957191800000001   6.9607773899999996  12.0290266599999995   0.1469051320456974  -0.5813007561512105   0.2747290776979204
