
     Program PWSCF v.7.3.1 starts on 16Apr2026 at 15:45:52 

     This program is part of the open-source Quantum ESPRESSO suite
     for quantum simulation of materials; please cite
         "P. Giannozzi et al., J. Phys.:Condens. Matter 21 395502 (2009);
         "P. Giannozzi et al., J. Phys.:Condens. Matter 29 465901 (2017);
         "P. Giannozzi et al., J. Chem. Phys. 152 154105 (2020);
          URL http://www.quantum-espresso.org", 
     in publications or presentations arising from this work. More details at
     http://www.quantum-espresso.org/quote

     Parallel version (MPI & OpenMP), running on     112 processor cores
     Number of MPI processes:               112
     Threads/MPI process:                     1

     MPI processes distributed on     1 nodes
     985610 MiB available memory on the printing compute node when the environment starts

     Reading input from H_E0.in

     Current dimensions of program PWSCF are:
     Max number of different atomic species (ntypx) = 10
     Max number of k-points (npk) =  40000
     Max angular momentum in pseudopotentials (lmaxx) =  4
     file H.pbe-kjpaw_psl.1.0.0.UPF: wavefunction(s)  1S renormalized

     IMPORTANT: XC functional enforced from input :
     Exchange-correlation= PBE
                           (   1   4   3   4   0   0   0)
     Any further DFT definition will be discarded
     Please, verify this is what you really want


     gamma-point specific algorithms are used
     Message from routine setup:
     the system is metallic, specify occupations
     Message from routine setup:
     using ibrav=0 with symmetry is DISCOURAGED, use correct ibrav instead

     R & G space division:  proc/nbgrp/npool/nimage =     112
     Subspace diagonalization in iterative solution of the eigenvalue problem:
     a serial algorithm will be used


     Parallelization info
     --------------------
     sticks:   dense  smooth     PW     G-vecs:    dense   smooth      PW
     Min         505     505    126                91005    91005   11370
     Max         508     508    128                91032    91032   11384
     Sum       56853   56853  14225             10194353 10194353 1274231

     Using Slab Decomposition



     bravais-lattice index     =            0
     lattice parameter (alat)  =      47.2432  a.u.
     unit-cell volume          =  105442.7265 (a.u.)^3
     number of atoms/cell      =            1
     number of atomic types    =            1
     number of electrons       =         1.00 (up:   1.00, down:   0.00)
     number of Kohn-Sham states=            1
     kinetic-energy cutoff     =      80.0000  Ry
     charge density cutoff     =     320.0000  Ry
     scf convergence threshold =      1.0E-08
     mixing beta               =       0.7000
     number of iterations used =            8  plain     mixing
     Exchange-correlation= PBE
                           (   1   4   3   4   0   0   0)

     celldm(1)=  47.243153  celldm(2)=   0.000000  celldm(3)=   0.000000
     celldm(4)=   0.000000  celldm(5)=   0.000000  celldm(6)=   0.000000

     crystal axes: (cart. coord. in units of alat)
               a(1) = (   1.000000   0.000000   0.000000 )  
               a(2) = (   0.000000   1.000000   0.000000 )  
               a(3) = (   0.000000   0.000000   1.000000 )  

     reciprocal axes: (cart. coord. in units 2 pi/alat)
               b(1) = (  1.000000  0.000000  0.000000 )  
               b(2) = (  0.000000  1.000000  0.000000 )  
               b(3) = (  0.000000  0.000000  1.000000 )  


     PseudoPot. # 1 for H  read from file:
     ./H.pbe-kjpaw_psl.1.0.0.UPF
     MD5 check sum: 8d6fbb64a3110289213aec18bba75243
     Pseudo is Projector augmented-wave, Zval =  1.0
     Generated using &quot;atomic&quot; code by A. Dal Corso  v.6.3MaX
     Shape of augmentation charge: PSQ
     Using radial grid of  929 points,  2 beta functions with: 
                l(1) =   0
                l(2) =   0
     Q(r) pseudized with 0 coefficients 


     atomic species   valence    mass     pseudopotential
     H                 1.00     1.00800     H ( 1.00)

     Starting magnetic structure 
     atomic species   magnetization
     H               0.000

     48 Sym. Ops., with inversion, found



   Cartesian axes

     site n.     atom                  positions (alat units)
         1        H      tau(   1) = (   0.5000000   0.5000000   0.5000000  )

     number of k points=     1
                       cart. coord. in units 2pi/alat
        k(    1) = (   0.0000000   0.0000000   0.0000000), wk =   1.0000000

     Dense  grid:  5097177 G-vectors     FFT dimensions: ( 270, 270, 270)

     Estimated max dynamical RAM per process >      77.78 MB

     Estimated total dynamical RAM >       6.99 GB
     Generating pointlists ...
     new r_m :   0.4125 (alat units) 19.4878 (a.u.) for type    1

     Initial potential from superposition of free atoms

     starting charge       1.0000, renormalised to       1.0000

     negative rho (up, down):  8.668E-05 8.668E-05
     Starting wfcs are    1 randomized atomic wfcs
     Checking if some PAW data can be deallocated... 

     total cpu time spent up to now is        3.7 secs

     per-process dynamical memory:   175.5 Mb

     Self-consistent Calculation

     iteration #  1     ecut=    80.00 Ry     beta= 0.70
     Davidson diagonalization with overlap
     ethr =  1.00E-02,  avg # of iterations =  1.0

     negative rho (up, down):  9.937E-05 2.600E-05

     total cpu time spent up to now is        4.3 secs

     total energy              =      -0.98388573 Ry
     estimated scf accuracy    <       0.01057036 Ry

     total magnetization       =     1.00 Bohr mag/cell
     absolute magnetization    =     1.00 Bohr mag/cell

     iteration #  2     ecut=    80.00 Ry     beta= 0.70
     Davidson diagonalization with overlap
     ethr =  1.06E-03,  avg # of iterations =  1.5

     negative rho (up, down):  1.182E-04 1.556E-06

     total cpu time spent up to now is        4.8 secs

     total energy              =      -0.99914452 Ry
     estimated scf accuracy    <       0.00209127 Ry

     total magnetization       =     1.00 Bohr mag/cell
     absolute magnetization    =     1.00 Bohr mag/cell

     iteration #  3     ecut=    80.00 Ry     beta= 0.70
     Davidson diagonalization with overlap
     ethr =  2.09E-04,  avg # of iterations =  2.0

     negative rho (up, down):  1.223E-04 2.423E-04

     total cpu time spent up to now is        5.2 secs

     total energy              =      -1.03234746 Ry
     estimated scf accuracy    <       0.00009127 Ry

     total magnetization       =     1.00 Bohr mag/cell
     absolute magnetization    =     1.00 Bohr mag/cell

     iteration #  4     ecut=    80.00 Ry     beta= 0.70
     Davidson diagonalization with overlap
     ethr =  9.13E-06,  avg # of iterations =  4.0

     negative rho (up, down):  1.229E-04 2.652E-04

     total cpu time spent up to now is        5.8 secs

     total energy              =      -1.03245141 Ry
     estimated scf accuracy    <       0.00004608 Ry

     total magnetization       =     1.00 Bohr mag/cell
     absolute magnetization    =     1.00 Bohr mag/cell

     iteration #  5     ecut=    80.00 Ry     beta= 0.70
     Davidson diagonalization with overlap
     ethr =  4.61E-06,  avg # of iterations =  1.0

     negative rho (up, down):  1.248E-04 1.203E-06

     total cpu time spent up to now is        6.2 secs

     total energy              =      -1.03255016 Ry
     estimated scf accuracy    <       0.00002581 Ry

     total magnetization       =     1.00 Bohr mag/cell
     absolute magnetization    =     1.00 Bohr mag/cell

     iteration #  6     ecut=    80.00 Ry     beta= 0.70
     Davidson diagonalization with overlap
     ethr =  2.58E-06,  avg # of iterations =  1.5

     negative rho (up, down):  1.248E-04 1.418E-07

     total cpu time spent up to now is        6.7 secs

     total energy              =      -1.03255159 Ry
     estimated scf accuracy    <       0.00000035 Ry

     total magnetization       =     1.00 Bohr mag/cell
     absolute magnetization    =     1.00 Bohr mag/cell

     iteration #  7     ecut=    80.00 Ry     beta= 0.70
     Davidson diagonalization with overlap
     ethr =  3.52E-08,  avg # of iterations =  1.5

     negative rho (up, down):  1.250E-04 3.289E-07

     total cpu time spent up to now is        7.2 secs

     total energy              =      -1.03255155 Ry
     estimated scf accuracy    <       0.00000024 Ry

     total magnetization       =     1.00 Bohr mag/cell
     absolute magnetization    =     1.00 Bohr mag/cell

     iteration #  8     ecut=    80.00 Ry     beta= 0.70
     Davidson diagonalization with overlap
     ethr =  2.42E-08,  avg # of iterations =  1.0

     negative rho (up, down):  1.249E-04 5.076E-15

     Magnetic moment per site  (integrated on atomic sphere of radius R)
     atom   1 (R=0.413)  charge=  1.0000  magn=  1.0000

     total cpu time spent up to now is        7.6 secs

     End of self-consistent calculation

 ------ SPIN UP ------------


          k = 0.0000 0.0000 0.0000 (637116 PWs)   bands (ev):

    -7.9808

 ------ SPIN DOWN ----------


          k = 0.0000 0.0000 0.0000 (637116 PWs)   bands (ev):

    -2.4174

     highest occupied, lowest unoccupied level (ev):    -7.9808   -2.4174

!    total energy              =      -1.00379392 Ry
     total all-electron energy =        -1.003790 Ry
     estimated scf accuracy    <          5.9E-09 Ry

     The total energy is the sum of the following terms:
     one-electron contribution =      -0.87857344 Ry
     hartree contribution      =       0.55844516 Ry
     xc contribution           =      -0.62340530 Ry
     ewald contribution        =      -0.06005733 Ry
     one-center paw contrib.   =      -0.00020302 Ry

     total magnetization       =     1.00 Bohr mag/cell
     absolute magnetization    =     1.00 Bohr mag/cell

     convergence has been achieved in   8 iterations

     Forces acting on atoms (cartesian axes, Ry/au):

     atom    1 type  1   force =     0.00000000    0.00000000    0.00000000

     Total force =     0.000000     Total SCF correction =     0.060530


     Computing stress (Cartesian axis) and pressure

          total   stress  (Ry/bohr**3)                   (kbar)     P=        0.01
   0.00000006   0.00000000   0.00000000            0.01        0.00        0.00
   0.00000000   0.00000006   0.00000000            0.00        0.01        0.00
   0.00000000   0.00000000   0.00000006            0.00        0.00        0.01


     Writing all to output data dir ./tmp/H_atom.save/ :
     XML data file, charge density, pseudopotentials, collected wavefunctions

     init_run     :      3.45s CPU      3.62s WALL (       1 calls)
     electrons    :      3.74s CPU      4.31s WALL (       1 calls)
     forces       :      0.07s CPU      0.08s WALL (       1 calls)
     stress       :      0.19s CPU      0.24s WALL (       1 calls)

     Called by init_run:
     wfcinit      :      0.02s CPU      0.03s WALL (       1 calls)
     potinit      :      0.27s CPU      0.34s WALL (       1 calls)
     hinit0       :      0.70s CPU      0.74s WALL (       1 calls)

     Called by electrons:
     c_bands      :      0.42s CPU      0.45s WALL (       8 calls)
     sum_band     :      0.36s CPU      0.40s WALL (       8 calls)
     v_of_rho     :      2.30s CPU      2.56s WALL (       9 calls)
     newd         :      0.24s CPU      0.27s WALL (       9 calls)
     PAW_pot      :      0.03s CPU      0.03s WALL (       9 calls)
     mix_rho      :      0.33s CPU      0.36s WALL (       8 calls)

     Called by c_bands:
     init_us_2    :      0.01s CPU      0.01s WALL (      38 calls)
     regterg      :      0.41s CPU      0.43s WALL (      16 calls)

     Called by *egterg:
     rdiaghg      :      0.00s CPU      0.00s WALL (      43 calls)
     h_psi        :      0.42s CPU      0.44s WALL (      45 calls)
     s_psi        :      0.00s CPU      0.00s WALL (      45 calls)
     g_psi        :      0.00s CPU      0.00s WALL (      27 calls)

     Called by h_psi:
     h_psi:calbec :      0.01s CPU      0.01s WALL (      45 calls)
     vloc_psi     :      0.41s CPU      0.43s WALL (      45 calls)
     add_vuspsi   :      0.00s CPU      0.00s WALL (      45 calls)

     General routines
     calbec       :      0.02s CPU      0.02s WALL (      71 calls)
     fft          :      2.21s CPU      2.50s WALL (     146 calls)
     ffts         :      0.08s CPU      0.09s WALL (       8 calls)
     fftw         :      0.39s CPU      0.41s WALL (     106 calls)

     Parallel routines

     PWSCF        :      7.79s CPU      8.95s WALL


   This run was terminated on:  15:46: 1  16Apr2026            

=------------------------------------------------------------------------------=
   JOB DONE.
=------------------------------------------------------------------------------=
