1
Properties=species:S:1:pos:R:3:REF_forces:R:3 REF_energy=-13.661314722541947 free_energy=-13.661314722541947 magmom=1.0 pbc="F F F"
H        0.00000000       0.00000000       0.00000000       0.00000000       0.00000000       0.00000000
