60
Lattice="7.9000000031159363 0.0000000000000000 0.0000000000000000 0.3891298188378098 6.0174311740352548 0.0000000000000000 -5.3300340521773464 -2.0795691853281384 12.2607923355764559" pbc="T T T" Properties=species:S:1:pos:R:3:forces:R:3 energy=-37693.8945000000021537 frame=0
C    -1.1124895500000000  -1.0838621500000001   4.3731523200000000  -0.2170566584789023   0.7393361945942655  -0.0526757369707795
C     4.2008089100000001   4.9750723199999998   7.3446829400000002   1.5658225083026067   1.8347804874236020   0.3041198742997857
C    -0.5766294300000000  -0.0192365300000000   3.6834744000000001   1.0426955365234485   0.5568238522697494  -0.2082182336067479
C     3.8222725299999998   3.9940679800000001   8.1972279900000000  -1.0385509179250332  -1.8075165075119410  -2.7993607620009846
C    -0.3612354900000000  -0.1978541200000000   2.2811195000000000  -0.2132426837711545  -0.7466227014850281  -0.4028965227575556
C     3.6471026200000001   4.1737934299999999   9.5711261299999997   0.1437817556974622  -0.2007450646128556   0.6313601383541565
C     0.3769424000000000   0.7191122500000000   1.5479001299999999  -0.9340869888595120   0.1054851713157015  -0.4212932814395546
C     2.9188395900000002   3.2719336200000000  10.3204410699999993   0.1940015747493791  -0.7328775829818464  -1.1392250406542861
C     0.4617094800000000   0.6187930600000000   0.1361901300000000  -0.0072093223682289  -0.5090028726423496  -0.3100971753652921
C     2.7862302699999999   3.4160837100000001  11.6807091700000001  -0.0272366233720288   0.0588083326785590   2.1667973472795463
C    -4.1880221600000000  -0.5271042900000000  11.6140019300000006   0.4662731918664277   0.1235564283137306  -0.7401280944257245
C     7.4722884199999999   4.5114717300000002   0.2025080000000000   0.2261557932306345  -0.1687044888996213   0.4685218788553694
C     7.4055150500000000   4.6008298800000000   1.6073501200000000   0.1410476443962494   1.5315548428685615  -0.7247117587457623
C    -4.0869190900000003  -0.7002332999999999  10.2123098799999994  -0.3004257130080963   1.3793866622676800   0.3148562876640930
C     6.7334864300000001   3.6466654400000000   2.3740617700000000  -0.7274782659491711  -1.8042974861191272   0.9485005942334059
C    -3.6055135800000002   0.3291138200000000   9.3472897400000008   0.4361172349079319   1.0039850045025163  -0.8495028308876311
C    -1.2670569199999999   3.7770920499999998   3.7518703800000002   0.3207842235453006   0.1138289159035289  -0.6548291697228514
C     4.3212066000000000   0.1834172700000000   7.9692455300000002  -1.0281070961218299  -1.8524131141903100   0.2992296357301913
H    -1.1668162700000000  -0.9858823200000000   5.4262724899999997  -0.2335235469872222  -0.0155127006334787   1.2571204136144241
H     4.2332202299999997   4.8790168400000002   6.2321206800000004  -0.0015112945484793  -0.1860424672225461   0.9196065347985468
H    -0.1481344900000000   0.9701847400000000   4.1259173599999999  -0.8509837864165937  -1.8693669696729103  -0.3572105873510765
H     3.5472431699999998   3.0422414500000001   7.6423521000000001  -0.0790850821292685   0.6994686660663312   1.2473399364752353
H     0.6770482700000000   1.6083400200000000   2.0993793599999999   0.4500346173354895   0.1223413248710437  -0.3267522686387509
H     2.5399842700000002   2.4100308300000002   9.7538722199999999  -0.2301975676950943   0.0571396866051275   0.5454698598810380
H    -3.6519399600000000   0.3131259900000000  12.0730245099999998  -0.4302870009539822  -0.1366155764434277  -0.0876437709570634
H     7.0950813999999998   3.6053901200000000  -0.2904854600000000  -0.0637983300580905   0.2657620976583213   0.1141662446629037
H     6.3171594300000002   2.7159306000000001   1.9005140400000000   0.3412604906158841   0.9911963364451225   0.2571365601434552
H    -3.3382530600000000   1.3392946600000000   9.7196747099999996   0.1378471349475474  -0.8745556619192442   0.1822860852298134
H    -1.7505350000000000   3.0036393800000001   4.3587553600000000   0.0682951898153043   0.1679717244451867  -0.1347150168479260
H     4.7242083800000003   0.9027623299999999   7.3052868699999998   0.3495543557987431   1.1259735739940919  -0.3553923030627394
C     2.4721697699999998   2.8923226099999999   4.9411829999999997  -0.0141135061910112   0.1477510250474831  -0.5141327380440609
C     0.2213935900000000   1.1329124399999999   7.8012074599999996   0.7274782659491711  -1.5716229174577092   0.6841037524533468
C     2.6220425500000002   3.7174656399999999   3.8712453099999999  -0.0640554403929798   0.0506280588416542  -0.7602289804073696
C     0.0714014600000000   0.1910722000000000   8.8370594800000006   0.0990872377423162   3.1886926577104511  -0.2741536647684382
C     3.1811378800000001   3.2149708299999999   2.6424668599999999  -0.5686560698813549   0.7715726883826854  -1.5234764361463398
C    -0.4373984000000000   0.6555571200000000  10.0870152399999995  -1.0335784040482743   2.3664075268742004  -0.4349833783310701
C     3.2062546300000001   4.0637665800000002   1.4722260599999999  -0.0941409491197159  -1.7299874571294229   2.4444405135131020
C    -0.5579635900000000  -0.1853375200000000  11.1515740300000008   1.9680407739967247  -2.5610143393519094   0.4438398009266667
C     3.7126246300000001   3.6146445599999999   0.2630854700000000   1.1296451095763109  -1.0348536713093250   0.6259659635281790
C    -1.0085116999999999   0.1493013300000000  12.4175664999999995  -2.2656716976645739   0.5271327507967335   1.1526410579288096
C    -1.5189703500000000   2.4523258600000002  11.4869891800000001   0.6712276668820908   0.5816092885530776  -2.2229399600059732
C     4.1054809399999996   1.3201364099999999   1.2653184000000000   0.4719553302674811   1.4055604943594104   0.5331285638063519
C     3.6072494499999999   1.8069914700000000   2.5081520099999999   0.4077980741818852   1.6558419787540473  -1.1249194216210456
C    -0.9061658000000000   2.0931814499999999  10.2578878499999995   0.3989601635304005  -1.4885917059085598  -0.9044164562132871
C     3.5970272699999999   1.0758212100000000   3.6977068800000001  -0.0942489354603694  -1.4480402638898202   1.0404072545429339
C    -0.7756178800000000   2.9190678000000001   9.0708326100000001  -1.1882302704841861   0.4794027882278845   1.3647056621455012
C     2.9463790799999998   1.5914626300000001   4.8116449100000001   1.4268389456748487  -2.0864915052802235   1.2408247605891405
C    -0.2286384100000000   2.4545448799999998   7.8861947800000003  -1.1409271110712531   0.8529223983416588   1.3380690314509702
H     2.0419376300000001   3.2697449399999998   5.8510773100000000  -0.2592721185850457  -0.0331253756381993   0.4524987627850685
H     0.8616894600000000   0.8823705800000000   6.9704294200000003  -0.1324904982304638  -0.4029057787296116  -0.6297557698644473
H     2.2072902000000001   4.7179642700000004   3.9752969100000000   0.2908838342596847   0.2169579281103048  -0.4818072840797692
H     0.4991327300000000  -0.7726168100000000   8.8159731099999998   0.4261017589226542  -1.1679082696145360  -0.3276650103276079
H     2.8341173899999998   5.0627323600000000   1.6140169099999999  -0.2000400680745892   0.4678117401104052  -0.2443689751335225
H    -0.0213910700000000  -1.1660771900000000  10.9945410500000005  -0.8819295863238693   0.5493419415244709   0.3768229636964321
H    -1.9131557900000000   3.4842253099999998  11.6070262799999995   0.2098375144958806  -0.6381581356086294  -0.0062626935372335
H     4.4155562499999998   0.2734255800000000   1.3351953400000001   0.2342239155394606   0.1663724981621753  -0.7181914406529697
H     4.1333577500000001   0.0721611400000000   3.7774219300000000  -0.8741442853834215   1.1518183048571640  -0.2419356829241302
H    -1.2835285400000001   3.9150439000000001   9.1947288999999994   0.7418918713230650  -0.6707751526926857  -0.5608604845275114
H     3.0067512399999998   0.9580264700000000   5.7223221100000004  -0.2976504640533012   0.3280697019947236  -0.4388210071896277
H    -0.2878049400000000   3.1363834700000002   7.0468725499999998   0.4042916034346649  -0.0475342501819313  -0.3803752000832626
